 Gaussian 16, Revision A.03,
 Gaussian 16:  EM64L-G16RevA.03 25-Dec-2016

 ----------------------------------------------------------------------
 #P m062x/cc-pVTZ opt=(calcfc,maxcycles=900,) freq IOP(7/33=1,2/16=3) s
 cf=(maxcycle=900)
 ----------------------------------------------------------------------

 ------------------------------
 Gaussian input prepared by ASE
 ------------------------------
 Symbolic Z-matrix:
 Charge =  0 Multiplicity = 1

 SCF Done:  E(RM062X) =  -76.4234255850     A.U. after   10 cycles
 SCF Done:  E(RM062X) =  -76.4252580115     A.U. after   10 cycles
 SCF Done:  E(RM062X) =  -76.4252756185     A.U. after    7 cycles
 Optimization completed.
    -- Stationary point found.
 Normal termination of Gaussian 16 at Thu Mar 31 22:21:55 2022.

 ----------------------------------------------------------------------
 #P Geom=AllCheck Guess=TCheck SCRF=Check Test GenChk RM062X/CC-pVTZ Fr
 eq
 ----------------------------------------------------------------------

 Structure from the checkpoint file:  "/scratch/harris.se/guassian_scratch/Gau-49055.chk"
 ------------------------------
 Gaussian input prepared by ASE
 ------------------------------
 Charge =  0 Multiplicity = 1

                         Standard orientation:
 ---------------------------------------------------------------------
 Center     Atomic      Atomic             Coordinates (Angstroms)
 Number     Number       Type             X           Y           Z
 ---------------------------------------------------------------------
      1          8           0        0.000000    0.117098    0.000000
      2          1           0        0.759598   -0.468088    0.000000
      3          1           0       -0.759598   -0.468699    0.000000
 ---------------------------------------------------------------------

 SCF Done:  E(RM062X) =  -76.4252756185     A.U. after    1 cycles

 The electronic state is 1-A'.
 Alpha  occ. eigenvalues --  -19.61274  -1.12745  -0.60153  -0.46641  -0.39343
 Alpha virt. eigenvalues --    0.06311   0.12770   0.41873   0.46485   0.54711
 Alpha virt. eigenvalues --    0.64423   0.66663   0.67253   0.72478   0.82212
 Alpha virt. eigenvalues --    0.97187   1.05322   1.34520   1.37118   1.81445

 Mulliken charges:
               1
     1  O   -0.505203
     2  H    0.252544
     3  H    0.252659
 Sum of Mulliken charges =   0.00000

 Dipole moment (field-independent basis, Debye):
    X=              0.0002    Y=             -1.9597    Z=              0.0000  Tot=              1.9597
 Quadrupole moment (field-independent basis, Debye-Ang):
   XX=             -4.2815   YY=             -6.1581   ZZ=             -7.3624
   XY=              0.0010   XZ=              0.0000   YZ=              0.0000

  Exact polarizability:   8.410   0.002   7.113  -0.000   0.000   5.410
 Approx polarizability:   9.001   0.003   7.614   0.000  -0.000   5.341

                      1                      2                      3
                     A'                     A'                     A'
 Frequencies --   1628.9508              3872.1785              3973.9564
 Red. masses --      1.0827                 1.0452                 1.0821
 Frc consts  --      1.6926                 9.2334                10.0683
 IR Inten    --     75.3820                 9.4062                62.3588

 - Thermochemistry -
 -------------------
 Temperature   298.150 Kelvin.  Pressure   1.00000 Atm.
 Atom     1 has atomic number  8 and mass  15.99491

 Molecular mass:    18.01056 amu.
 Principal axes and moments of inertia in atomic units:
                           1         2         3
     Eigenvalues --     2.19134   4.15318   6.34451
           X            1.00000  -0.00085   0.00000
           Y            0.00085   1.00000   0.00000
           Z            0.00000  -0.00000   1.00000
 This molecule is an asymmetric top.
 Rotational symmetry number  1.
 Rotational temperatures (Kelvin)     39.52561    20.85487    13.65179
 Rotational constants (GHZ):         823.58007   434.54486   284.45704
 Zero-point vibrational energy      56673.6 (Joules/Mol)
                                   13.54532 (Kcal/Mol)
 Vibrational temperatures:   2343.70  5571.20  5717.64
          (Kelvin)

 Zero-point correction=                           0.021586 (Hartree/Particle)
 Thermal correction to Energy=                    0.024421
 Thermal correction to Enthalpy=                  0.025365
 Thermal correction to Gibbs Free Energy=         0.003297
 Sum of electronic and zero-point Energies=            -76.403690
 Sum of electronic and thermal Energies=               -76.400854
 Sum of electronic and thermal Enthalpies=             -76.399910
 Sum of electronic and thermal Free Energies=          -76.421979

                     E (Thermal)             CV                S
                      KCal/Mol        Cal/Mol-Kelvin    Cal/Mol-Kelvin
 Total                   15.325              6.009             46.448
 Electronic               0.000              0.000              0.000
 Translational            0.889              2.981             34.608
 Rotational               0.889              2.981             11.833
 Vibrational             13.547              0.047              0.007

 Optimization completed.
    -- Stationary point found.
 Normal termination of Gaussian 16 at Thu Mar 31 22:22:24 2022.
